 Gaussian 16, Revision C.01,
 Gaussian 16:  EM64M-G16RevC.01  3-Jul-2019

 ------------------------------------------------
 # opt b3lyp/6-31g(d,p) int=ultrafine scfconver=9
 ------------------------------------------------

 -----
 Title
 -----
 Symbolic Z-matrix:
 Charge =  0 Multiplicity = 1

 SCF Done:  E(RB3LYP) =  -765.671954746     A.U. after   15 cycles
 SCF Done:  E(RB3LYP) =  -765.673570643     A.U. after   13 cycles
 SCF Done:  E(RB3LYP) =  -765.671840460     A.U. after   14 cycles
 SCF Done:  E(RB3LYP) =  -765.674047145     A.U. after   13 cycles
 SCF Done:  E(RB3LYP) =  -765.673574411     A.U. after   14 cycles
 SCF Done:  E(RB3LYP) =  -765.674746971     A.U. after   13 cycles
 SCF Done:  E(RB3LYP) =  -765.675501780     A.U. after   13 cycles
 SCF Done:  E(RB3LYP) =  -765.675733709     A.U. after   14 cycles
 SCF Done:  E(RB3LYP) =  -765.676714176     A.U. after   13 cycles
 SCF Done:  E(RB3LYP) =  -765.676891162     A.U. after   13 cycles
 SCF Done:  E(RB3LYP) =  -765.676943058     A.U. after   12 cycles
 SCF Done:  E(RB3LYP) =  -765.676967488     A.U. after   11 cycles
 SCF Done:  E(RB3LYP) =  -765.676983111     A.U. after   11 cycles
 SCF Done:  E(RB3LYP) =  -765.676992103     A.U. after   11 cycles
 SCF Done:  E(RB3LYP) =  -765.676995893     A.U. after   11 cycles
 SCF Done:  E(RB3LYP) =  -765.676999393     A.U. after   10 cycles
 SCF Done:  E(RB3LYP) =  -765.676999923     A.U. after    9 cycles
 SCF Done:  E(RB3LYP) =  -765.677000739     A.U. after   10 cycles
 SCF Done:  E(RB3LYP) =  -765.677001242     A.U. after   10 cycles
 SCF Done:  E(RB3LYP) =  -765.677001349     A.U. after    9 cycles
 Optimization completed.
    -- Stationary point found.

                         Standard orientation:
 ---------------------------------------------------------------------
 Center     Atomic      Atomic             Coordinates (Angstroms)
 Number     Number       Type             X           Y           Z
 ---------------------------------------------------------------------
      1          6           0       -0.212459    1.532558    0.144199
      2          1           0       -0.789684    2.413503    0.382141
      3          6           0        1.141461    1.411435   -0.029544
      4          1           0        1.944179    2.130248    0.025177
      5          6           0        0.161869   -0.538311   -0.323336
      6          1           0        0.039210   -1.591917   -0.530090
      7          7           0       -0.810616    0.308557   -0.042356
      8          7           0        1.371236    0.081951   -0.332256
      9          6           0        2.672213   -0.551808   -0.551680
     10          1           0        3.246371    0.084711   -1.232071
     11          1           0        2.486568   -1.494401   -1.073899
     12          6           0        3.442493   -0.795153    0.746606
     13          1           0        4.401852   -1.272936    0.526517
     14          1           0        3.642124    0.144164    1.269949
     15          1           0        2.878141   -1.447266    1.418935
     16         17           0       -3.684691   -0.468624    0.110252
     17          1           0       -2.366810   -0.085369    0.043881
 ---------------------------------------------------------------------

 The electronic state is 1-A.
 Alpha  occ. eigenvalues -- -101.46962 -14.42131 -14.35187 -10.26576 -10.26573
 Alpha  occ. eigenvalues --  -10.23598 -10.22388 -10.21325  -9.38697  -7.14871
 Alpha  occ. eigenvalues --   -7.14223  -7.14214  -1.04526  -0.91617  -0.79596
 Alpha  occ. eigenvalues --   -0.76556  -0.75733  -0.67998  -0.62357  -0.59993
 Alpha  occ. eigenvalues --   -0.55865  -0.49484  -0.47932  -0.45966  -0.45459
 Alpha  occ. eigenvalues --   -0.43653  -0.41607  -0.41492  -0.40580  -0.38731
 Alpha  occ. eigenvalues --   -0.29955  -0.28649  -0.25888  -0.25796  -0.25323
 Alpha virt. eigenvalues --    0.00094   0.03805   0.06582   0.09765   0.09949
 Alpha virt. eigenvalues --    0.11654   0.12989   0.14043   0.14432   0.15726
 Alpha virt. eigenvalues --    0.15916   0.16763   0.19945   0.21625   0.23781

 Mulliken charges:
               1
     1  C    0.059157
     2  H    0.120611
     3  C    0.051077
     4  H    0.121295
     5  C    0.304309
     6  H    0.139926
     7  N   -0.495748
     8  N   -0.397060
     9  C   -0.073565
    10  H    0.133733
    11  H    0.130718
    12  C   -0.315272
    13  H    0.122781
    14  H    0.125171
    15  H    0.130518
    16  Cl  -0.357757
    17  H    0.200106
 Sum of Mulliken charges =  -0.00000

 Dipole moment (field-independent basis, Debye):
    X=              8.9387    Y=              0.4297    Z=             -0.5997  Tot=              8.9691
 Quadrupole moment (field-independent basis, Debye-Ang):
   XX=            -67.8302   YY=            -49.9714   ZZ=            -56.8011
   XY=             -4.0785   XZ=             -0.5437   YZ=              1.6316

 Normal termination of Gaussian 16 at Tue Apr 23 12:39:08 2024.
